LAMMPS (28 Jun 2014)
label		begin
variable	n loop 10
label       innerBegin
variable	nn loop 10
print       "All done ${n} ${nn}"
All done 1 1

next        nn
jump		loopt.in innerBegin
variable	nn loop 10
print       "All done ${n} ${nn}"
All done 1 2

next        nn
jump		loopt.in innerBegin
variable	nn loop 10
print       "All done ${n} ${nn}"
All done 1 3

next        nn
jump		loopt.in innerBegin
variable	nn loop 10
print       "All done ${n} ${nn}"
All done 1 4

next        nn
jump		loopt.in innerBegin
variable	nn loop 10
print       "All done ${n} ${nn}"
All done 1 5

next        nn
jump		loopt.in innerBegin
variable	nn loop 10
print       "All done ${n} ${nn}"
All done 1 6

next        nn
jump		loopt.in innerBegin
variable	nn loop 10
print       "All done ${n} ${nn}"
All done 1 7

next        nn
jump		loopt.in innerBegin
variable	nn loop 10
print       "All done ${n} ${nn}"
All done 1 8

next        nn
jump		loopt.in innerBegin
variable	nn loop 10
print       "All done ${n} ${nn}"
All done 1 9

next        nn
jump		loopt.in innerBegin
variable	nn loop 10
print       "All done ${n} ${nn}"
All done 1 10

next        nn
jump		loopt.in innerBegin

next		n
jump		loopt.in begin
variable	n loop 10
label       innerBegin
variable	nn loop 10
print       "All done ${n} ${nn}"
All done 2 1

next        nn
jump		loopt.in innerBegin
variable	nn loop 10
print       "All done ${n} ${nn}"
All done 2 2

next        nn
jump		loopt.in innerBegin
variable	nn loop 10
print       "All done ${n} ${nn}"
All done 2 3

next        nn
jump		loopt.in innerBegin
variable	nn loop 10
print       "All done ${n} ${nn}"
All done 2 4

next        nn
jump		loopt.in innerBegin
variable	nn loop 10
print       "All done ${n} ${nn}"
All done 2 5

next        nn
jump		loopt.in innerBegin
variable	nn loop 10
print       "All done ${n} ${nn}"
All done 2 6

next        nn
jump		loopt.in innerBegin
variable	nn loop 10
print       "All done ${n} ${nn}"
All done 2 7

next        nn
jump		loopt.in innerBegin
variable	nn loop 10
print       "All done ${n} ${nn}"
All done 2 8

next        nn
jump		loopt.in innerBegin
variable	nn loop 10
print       "All done ${n} ${nn}"
All done 2 9

next        nn
jump		loopt.in innerBegin
variable	nn loop 10
print       "All done ${n} ${nn}"
All done 2 10

next        nn
jump		loopt.in innerBegin

next		n
jump		loopt.in begin
variable	n loop 10
label       innerBegin
variable	nn loop 10
print       "All done ${n} ${nn}"
All done 3 1

next        nn
jump		loopt.in innerBegin
variable	nn loop 10
print       "All done ${n} ${nn}"
All done 3 2

next        nn
jump		loopt.in innerBegin
variable	nn loop 10
print       "All done ${n} ${nn}"
All done 3 3

next        nn
jump		loopt.in innerBegin
variable	nn loop 10
print       "All done ${n} ${nn}"
All done 3 4

next        nn
jump		loopt.in innerBegin
variable	nn loop 10
print       "All done ${n} ${nn}"
All done 3 5

next        nn
jump		loopt.in innerBegin
variable	nn loop 10
print       "All done ${n} ${nn}"
All done 3 6

next        nn
jump		loopt.in innerBegin
variable	nn loop 10
print       "All done ${n} ${nn}"
All done 3 7

next        nn
jump		loopt.in innerBegin
variable	nn loop 10
print       "All done ${n} ${nn}"
All done 3 8

next        nn
jump		loopt.in innerBegin
variable	nn loop 10
print       "All done ${n} ${nn}"
All done 3 9

next        nn
jump		loopt.in innerBegin
variable	nn loop 10
print       "All done ${n} ${nn}"
All done 3 10

next        nn
jump		loopt.in innerBegin

next		n
jump		loopt.in begin
variable	n loop 10
label       innerBegin
variable	nn loop 10
print       "All done ${n} ${nn}"
All done 4 1

next        nn
jump		loopt.in innerBegin
variable	nn loop 10
print       "All done ${n} ${nn}"
All done 4 2

next        nn
jump		loopt.in innerBegin
variable	nn loop 10
print       "All done ${n} ${nn}"
All done 4 3

next        nn
jump		loopt.in innerBegin
variable	nn loop 10
print       "All done ${n} ${nn}"
All done 4 4

next        nn
jump		loopt.in innerBegin
variable	nn loop 10
print       "All done ${n} ${nn}"
All done 4 5

next        nn
jump		loopt.in innerBegin
variable	nn loop 10
print       "All done ${n} ${nn}"
All done 4 6

next        nn
jump		loopt.in innerBegin
variable	nn loop 10
print       "All done ${n} ${nn}"
All done 4 7

next        nn
jump		loopt.in innerBegin
variable	nn loop 10
print       "All done ${n} ${nn}"
All done 4 8

next        nn
jump		loopt.in innerBegin
variable	nn loop 10
print       "All done ${n} ${nn}"
All done 4 9

next        nn
jump		loopt.in innerBegin
variable	nn loop 10
print       "All done ${n} ${nn}"
All done 4 10

next        nn
jump		loopt.in innerBegin

next		n
jump		loopt.in begin
variable	n loop 10
label       innerBegin
variable	nn loop 10
print       "All done ${n} ${nn}"
All done 5 1

next        nn
jump		loopt.in innerBegin
variable	nn loop 10
print       "All done ${n} ${nn}"
All done 5 2

next        nn
jump		loopt.in innerBegin
variable	nn loop 10
print       "All done ${n} ${nn}"
All done 5 3

next        nn
jump		loopt.in innerBegin
variable	nn loop 10
print       "All done ${n} ${nn}"
All done 5 4

next        nn
jump		loopt.in innerBegin
variable	nn loop 10
print       "All done ${n} ${nn}"
All done 5 5

next        nn
jump		loopt.in innerBegin
variable	nn loop 10
print       "All done ${n} ${nn}"
All done 5 6

next        nn
jump		loopt.in innerBegin
variable	nn loop 10
print       "All done ${n} ${nn}"
All done 5 7

next        nn
jump		loopt.in innerBegin
variable	nn loop 10
print       "All done ${n} ${nn}"
All done 5 8

next        nn
jump		loopt.in innerBegin
variable	nn loop 10
print       "All done ${n} ${nn}"
All done 5 9

next        nn
jump		loopt.in innerBegin
variable	nn loop 10
print       "All done ${n} ${nn}"
All done 5 10

next        nn
jump		loopt.in innerBegin

next		n
jump		loopt.in begin
variable	n loop 10
label       innerBegin
variable	nn loop 10
print       "All done ${n} ${nn}"
All done 6 1

next        nn
jump		loopt.in innerBegin
variable	nn loop 10
print       "All done ${n} ${nn}"
All done 6 2

next        nn
jump		loopt.in innerBegin
variable	nn loop 10
print       "All done ${n} ${nn}"
All done 6 3

next        nn
jump		loopt.in innerBegin
variable	nn loop 10
print       "All done ${n} ${nn}"
All done 6 4

next        nn
jump		loopt.in innerBegin
variable	nn loop 10
print       "All done ${n} ${nn}"
All done 6 5

next        nn
jump		loopt.in innerBegin
variable	nn loop 10
print       "All done ${n} ${nn}"
All done 6 6

next        nn
jump		loopt.in innerBegin
variable	nn loop 10
print       "All done ${n} ${nn}"
All done 6 7

next        nn
jump		loopt.in innerBegin
variable	nn loop 10
print       "All done ${n} ${nn}"
All done 6 8

next        nn
jump		loopt.in innerBegin
variable	nn loop 10
print       "All done ${n} ${nn}"
All done 6 9

next        nn
jump		loopt.in innerBegin
variable	nn loop 10
print       "All done ${n} ${nn}"
All done 6 10

next        nn
jump		loopt.in innerBegin

next		n
jump		loopt.in begin
variable	n loop 10
label       innerBegin
variable	nn loop 10
print       "All done ${n} ${nn}"
All done 7 1

next        nn
jump		loopt.in innerBegin
variable	nn loop 10
print       "All done ${n} ${nn}"
All done 7 2

next        nn
jump		loopt.in innerBegin
variable	nn loop 10
print       "All done ${n} ${nn}"
All done 7 3

next        nn
jump		loopt.in innerBegin
variable	nn loop 10
print       "All done ${n} ${nn}"
All done 7 4

next        nn
jump		loopt.in innerBegin
variable	nn loop 10
print       "All done ${n} ${nn}"
All done 7 5

next        nn
jump		loopt.in innerBegin
variable	nn loop 10
print       "All done ${n} ${nn}"
All done 7 6

next        nn
jump		loopt.in innerBegin
variable	nn loop 10
print       "All done ${n} ${nn}"
All done 7 7

next        nn
jump		loopt.in innerBegin
variable	nn loop 10
print       "All done ${n} ${nn}"
All done 7 8

next        nn
jump		loopt.in innerBegin
variable	nn loop 10
print       "All done ${n} ${nn}"
All done 7 9

next        nn
jump		loopt.in innerBegin
variable	nn loop 10
print       "All done ${n} ${nn}"
All done 7 10

next        nn
jump		loopt.in innerBegin

next		n
jump		loopt.in begin
variable	n loop 10
label       innerBegin
variable	nn loop 10
print       "All done ${n} ${nn}"
All done 8 1

next        nn
jump		loopt.in innerBegin
variable	nn loop 10
print       "All done ${n} ${nn}"
All done 8 2

next        nn
jump		loopt.in innerBegin
variable	nn loop 10
print       "All done ${n} ${nn}"
All done 8 3

next        nn
jump		loopt.in innerBegin
variable	nn loop 10
print       "All done ${n} ${nn}"
All done 8 4

next        nn
jump		loopt.in innerBegin
variable	nn loop 10
print       "All done ${n} ${nn}"
All done 8 5

next        nn
jump		loopt.in innerBegin
variable	nn loop 10
print       "All done ${n} ${nn}"
All done 8 6

next        nn
jump		loopt.in innerBegin
variable	nn loop 10
print       "All done ${n} ${nn}"
All done 8 7

next        nn
jump		loopt.in innerBegin
variable	nn loop 10
print       "All done ${n} ${nn}"
All done 8 8

next        nn
jump		loopt.in innerBegin
variable	nn loop 10
print       "All done ${n} ${nn}"
All done 8 9

next        nn
jump		loopt.in innerBegin
variable	nn loop 10
print       "All done ${n} ${nn}"
All done 8 10

next        nn
jump		loopt.in innerBegin

next		n
jump		loopt.in begin
variable	n loop 10
label       innerBegin
variable	nn loop 10
print       "All done ${n} ${nn}"
All done 9 1

next        nn
jump		loopt.in innerBegin
variable	nn loop 10
print       "All done ${n} ${nn}"
All done 9 2

next        nn
jump		loopt.in innerBegin
variable	nn loop 10
print       "All done ${n} ${nn}"
All done 9 3

next        nn
jump		loopt.in innerBegin
variable	nn loop 10
print       "All done ${n} ${nn}"
All done 9 4

next        nn
jump		loopt.in innerBegin
variable	nn loop 10
print       "All done ${n} ${nn}"
All done 9 5

next        nn
jump		loopt.in innerBegin
variable	nn loop 10
print       "All done ${n} ${nn}"
All done 9 6

next        nn
jump		loopt.in innerBegin
variable	nn loop 10
print       "All done ${n} ${nn}"
All done 9 7

next        nn
jump		loopt.in innerBegin
variable	nn loop 10
print       "All done ${n} ${nn}"
All done 9 8

next        nn
jump		loopt.in innerBegin
variable	nn loop 10
print       "All done ${n} ${nn}"
All done 9 9

next        nn
jump		loopt.in innerBegin
variable	nn loop 10
print       "All done ${n} ${nn}"
All done 9 10

next        nn
jump		loopt.in innerBegin

next		n
jump		loopt.in begin
variable	n loop 10
label       innerBegin
variable	nn loop 10
print       "All done ${n} ${nn}"
All done 10 1

next        nn
jump		loopt.in innerBegin
variable	nn loop 10
print       "All done ${n} ${nn}"
All done 10 2

next        nn
jump		loopt.in innerBegin
variable	nn loop 10
print       "All done ${n} ${nn}"
All done 10 3

next        nn
jump		loopt.in innerBegin
variable	nn loop 10
print       "All done ${n} ${nn}"
All done 10 4

next        nn
jump		loopt.in innerBegin
variable	nn loop 10
print       "All done ${n} ${nn}"
All done 10 5

next        nn
jump		loopt.in innerBegin
variable	nn loop 10
print       "All done ${n} ${nn}"
All done 10 6

next        nn
jump		loopt.in innerBegin
variable	nn loop 10
print       "All done ${n} ${nn}"
All done 10 7

next        nn
jump		loopt.in innerBegin
variable	nn loop 10
print       "All done ${n} ${nn}"
All done 10 8

next        nn
jump		loopt.in innerBegin
variable	nn loop 10
print       "All done ${n} ${nn}"
All done 10 9

next        nn
jump		loopt.in innerBegin
variable	nn loop 10
print       "All done ${n} ${nn}"
All done 10 10

next        nn
jump		loopt.in innerBegin

next		n
jump		loopt.in begin
