LAMMPS data file. CGCMM style. atom_style full generated by VMD/TopoTools v1.5 on Wed Oct 15 21:01:20 CST 2014
 912 atoms
 0 bonds
 0 angles
 0 dihedrals
 0 impropers
 1 atom types
 0 bond types
 0 angle types
 0 dihedral types
 0 improper types
 -50.000000 50.000000  xlo xhi
 -50.000000 50.000000  ylo yhi
 -0.709001 80.116995  zlo zhi

# Pair Coeffs
#
# 1  CA

 Masses

 1 12.010700 # CA

 Atoms

1 1 1 0.000000 4.704129 0.000000 0.000000 # CA CNT
2 2 1 0.000000 4.543839 1.217518 0.709000 # CA CNT
3 3 1 0.000000 4.543839 1.217518 2.127000 # CA CNT
4 4 1 0.000000 4.073895 2.352064 2.836000 # CA CNT
5 5 1 0.000000 4.073895 2.352064 0.000000 # CA CNT
6 6 1 0.000000 3.326321 3.326321 0.709000 # CA CNT
7 7 1 0.000000 3.326321 3.326321 2.127000 # CA CNT
8 8 1 0.000000 2.352064 4.073895 2.836000 # CA CNT
9 9 1 0.000000 2.352064 4.073895 0.000000 # CA CNT
10 10 1 0.000000 1.217518 4.543839 0.709000 # CA CNT
11 11 1 0.000000 1.217518 4.543839 2.127000 # CA CNT
12 12 1 0.000000 0.000000 4.704129 2.836000 # CA CNT
13 13 1 0.000000 0.000000 4.704129 0.000000 # CA CNT
14 14 1 0.000000 -1.217518 4.543839 0.709000 # CA CNT
15 15 1 0.000000 -1.217518 4.543839 2.127000 # CA CNT
16 16 1 0.000000 -2.352064 4.073895 2.836000 # CA CNT
17 17 1 0.000000 -2.352064 4.073895 0.000000 # CA CNT
18 18 1 0.000000 -3.326321 3.326321 0.709000 # CA CNT
19 19 1 0.000000 -3.326321 3.326321 2.127000 # CA CNT
20 20 1 0.000000 -4.073895 2.352064 2.836000 # CA CNT
21 21 1 0.000000 -4.073895 2.352064 0.000000 # CA CNT
22 22 1 0.000000 -4.543839 1.217518 0.709000 # CA CNT
23 23 1 0.000000 -4.543839 1.217518 2.127000 # CA CNT
24 24 1 0.000000 -4.704129 0.000000 2.836000 # CA CNT
25 25 1 0.000000 -4.704129 0.000000 0.000000 # CA CNT
26 26 1 0.000000 -4.543839 -1.217518 0.709000 # CA CNT
27 27 1 0.000000 -4.543839 -1.217518 2.127000 # CA CNT
28 28 1 0.000000 -4.073895 -2.352064 2.836000 # CA CNT
29 29 1 0.000000 -4.073895 -2.352064 0.000000 # CA CNT
30 30 1 0.000000 -3.326321 -3.326321 0.709000 # CA CNT
31 31 1 0.000000 -3.326321 -3.326321 2.127000 # CA CNT
32 32 1 0.000000 -2.352064 -4.073895 2.836000 # CA CNT
33 33 1 0.000000 -2.352064 -4.073895 0.000000 # CA CNT
34 34 1 0.000000 -1.217518 -4.543839 0.709000 # CA CNT
35 35 1 0.000000 -1.217518 -4.543839 2.127000 # CA CNT
36 36 1 0.000000 -0.000000 -4.704129 2.836000 # CA CNT
37 37 1 0.000000 -0.000000 -4.704129 0.000000 # CA CNT
38 38 1 0.000000 1.217518 -4.543839 0.709000 # CA CNT
39 39 1 0.000000 1.217518 -4.543839 2.127000 # CA CNT
40 40 1 0.000000 2.352064 -4.073895 2.836000 # CA CNT
41 41 1 0.000000 2.352064 -4.073895 0.000000 # CA CNT
42 42 1 0.000000 3.326321 -3.326321 0.709000 # CA CNT
43 43 1 0.000000 3.326321 -3.326321 2.127000 # CA CNT
44 44 1 0.000000 4.073895 -2.352064 2.836000 # CA CNT
45 45 1 0.000000 4.073895 -2.352064 0.000000 # CA CNT
46 46 1 0.000000 4.543839 -1.217518 0.709000 # CA CNT
47 47 1 0.000000 4.543839 -1.217518 2.127000 # CA CNT
48 48 1 0.000000 4.704129 -0.000000 2.836000 # CA CNT
49 49 1 0.000000 4.704129 0.000000 4.254000 # CA CNT
50 50 1 0.000000 4.543839 1.217518 4.963000 # CA CNT
51 51 1 0.000000 4.543839 1.217518 6.381000 # CA CNT
52 52 1 0.000000 4.073895 2.352064 7.090000 # CA CNT
53 53 1 0.000000 4.073895 2.352064 4.254000 # CA CNT
54 54 1 0.000000 3.326321 3.326321 4.963000 # CA CNT
55 55 1 0.000000 3.326321 3.326321 6.381000 # CA CNT
56 56 1 0.000000 2.352064 4.073895 7.090000 # CA CNT
57 57 1 0.000000 2.352064 4.073895 4.254000 # CA CNT
58 58 1 0.000000 1.217518 4.543839 4.963000 # CA CNT
59 59 1 0.000000 1.217518 4.543839 6.381000 # CA CNT
60 60 1 0.000000 0.000000 4.704129 7.090000 # CA CNT
61 61 1 0.000000 0.000000 4.704129 4.254000 # CA CNT
62 62 1 0.000000 -1.217518 4.543839 4.963000 # CA CNT
63 63 1 0.000000 -1.217518 4.543839 6.381000 # CA CNT
64 64 1 0.000000 -2.352064 4.073895 7.090000 # CA CNT
65 65 1 0.000000 -2.352064 4.073895 4.254000 # CA CNT
66 66 1 0.000000 -3.326321 3.326321 4.963000 # CA CNT
67 67 1 0.000000 -3.326321 3.326321 6.381000 # CA CNT
68 68 1 0.000000 -4.073895 2.352064 7.090000 # CA CNT
69 69 1 0.000000 -4.073895 2.352064 4.254000 # CA CNT
70 70 1 0.000000 -4.543839 1.217518 4.963000 # CA CNT
71 71 1 0.000000 -4.543839 1.217518 6.381000 # CA CNT
72 72 1 0.000000 -4.704129 0.000000 7.090000 # CA CNT
73 73 1 0.000000 -4.704129 0.000000 4.254000 # CA CNT
74 74 1 0.000000 -4.543839 -1.217518 4.963000 # CA CNT
75 75 1 0.000000 -4.543839 -1.217518 6.381000 # CA CNT
76 76 1 0.000000 -4.073895 -2.352064 7.090000 # CA CNT
77 77 1 0.000000 -4.073895 -2.352064 4.254000 # CA CNT
78 78 1 0.000000 -3.326321 -3.326321 4.963000 # CA CNT
79 79 1 0.000000 -3.326321 -3.326321 6.381000 # CA CNT
80 80 1 0.000000 -2.352064 -4.073895 7.090000 # CA CNT
81 81 1 0.000000 -2.352064 -4.073895 4.254000 # CA CNT
82 82 1 0.000000 -1.217518 -4.543839 4.963000 # CA CNT
83 83 1 0.000000 -1.217518 -4.543839 6.381000 # CA CNT
84 84 1 0.000000 -0.000000 -4.704129 7.090000 # CA CNT
85 85 1 0.000000 -0.000000 -4.704129 4.254000 # CA CNT
86 86 1 0.000000 1.217518 -4.543839 4.963000 # CA CNT
87 87 1 0.000000 1.217518 -4.543839 6.381000 # CA CNT
88 88 1 0.000000 2.352064 -4.073895 7.090000 # CA CNT
89 89 1 0.000000 2.352064 -4.073895 4.254000 # CA CNT
90 90 1 0.000000 3.326321 -3.326321 4.963000 # CA CNT
91 91 1 0.000000 3.326321 -3.326321 6.381000 # CA CNT
92 92 1 0.000000 4.073895 -2.352064 7.090000 # CA CNT
93 93 1 0.000000 4.073895 -2.352064 4.254000 # CA CNT
94 94 1 0.000000 4.543839 -1.217518 4.963000 # CA CNT
95 95 1 0.000000 4.543839 -1.217518 6.381000 # CA CNT
96 96 1 0.000000 4.704129 -0.000000 7.090000 # CA CNT
97 97 1 0.000000 4.704129 0.000000 8.508000 # CA CNT
98 98 1 0.000000 4.543839 1.217518 9.217000 # CA CNT
99 99 1 0.000000 4.543839 1.217518 10.635000 # CA CNT
100 100 1 0.000000 4.073895 2.352064 11.344000 # CA CNT
101 101 1 0.000000 4.073895 2.352064 8.508000 # CA CNT
102 102 1 0.000000 3.326321 3.326321 9.217000 # CA CNT
103 103 1 0.000000 3.326321 3.326321 10.635000 # CA CNT
104 104 1 0.000000 2.352064 4.073895 11.344000 # CA CNT
105 105 1 0.000000 2.352064 4.073895 8.508000 # CA CNT
106 106 1 0.000000 1.217518 4.543839 9.217000 # CA CNT
107 107 1 0.000000 1.217518 4.543839 10.635000 # CA CNT
108 108 1 0.000000 0.000000 4.704129 11.344000 # CA CNT
109 109 1 0.000000 0.000000 4.704129 8.508000 # CA CNT
110 110 1 0.000000 -1.217518 4.543839 9.217000 # CA CNT
111 111 1 0.000000 -1.217518 4.543839 10.635000 # CA CNT
112 112 1 0.000000 -2.352064 4.073895 11.344000 # CA CNT
113 113 1 0.000000 -2.352064 4.073895 8.508000 # CA CNT
114 114 1 0.000000 -3.326321 3.326321 9.217000 # CA CNT
115 115 1 0.000000 -3.326321 3.326321 10.635000 # CA CNT
116 116 1 0.000000 -4.073895 2.352064 11.344000 # CA CNT
117 117 1 0.000000 -4.073895 2.352064 8.508000 # CA CNT
118 118 1 0.000000 -4.543839 1.217518 9.217000 # CA CNT
119 119 1 0.000000 -4.543839 1.217518 10.635000 # CA CNT
120 120 1 0.000000 -4.704129 0.000000 11.344000 # CA CNT
121 121 1 0.000000 -4.704129 0.000000 8.508000 # CA CNT
122 122 1 0.000000 -4.543839 -1.217518 9.217000 # CA CNT
123 123 1 0.000000 -4.543839 -1.217518 10.635000 # CA CNT
124 124 1 0.000000 -4.073895 -2.352064 11.344000 # CA CNT
125 125 1 0.000000 -4.073895 -2.352064 8.508000 # CA CNT
126 126 1 0.000000 -3.326321 -3.326321 9.217000 # CA CNT
127 127 1 0.000000 -3.326321 -3.326321 10.635000 # CA CNT
128 128 1 0.000000 -2.352064 -4.073895 11.344000 # CA CNT
129 129 1 0.000000 -2.352064 -4.073895 8.508000 # CA CNT
130 130 1 0.000000 -1.217518 -4.543839 9.217000 # CA CNT
131 131 1 0.000000 -1.217518 -4.543839 10.635000 # CA CNT
132 132 1 0.000000 -0.000000 -4.704129 11.344000 # CA CNT
133 133 1 0.000000 -0.000000 -4.704129 8.508000 # CA CNT
134 134 1 0.000000 1.217518 -4.543839 9.217000 # CA CNT
135 135 1 0.000000 1.217518 -4.543839 10.635000 # CA CNT
136 136 1 0.000000 2.352064 -4.073895 11.344000 # CA CNT
137 137 1 0.000000 2.352064 -4.073895 8.508000 # CA CNT
138 138 1 0.000000 3.326321 -3.326321 9.217000 # CA CNT
139 139 1 0.000000 3.326321 -3.326321 10.635000 # CA CNT
140 140 1 0.000000 4.073895 -2.352064 11.344000 # CA CNT
141 141 1 0.000000 4.073895 -2.352064 8.508000 # CA CNT
142 142 1 0.000000 4.543839 -1.217518 9.217000 # CA CNT
143 143 1 0.000000 4.543839 -1.217518 10.635000 # CA CNT
144 144 1 0.000000 4.704129 -0.000000 11.344000 # CA CNT
145 145 1 0.000000 4.704129 0.000000 12.762000 # CA CNT
146 146 1 0.000000 4.543839 1.217518 13.471000 # CA CNT
147 147 1 0.000000 4.543839 1.217518 14.889000 # CA CNT
148 148 1 0.000000 4.073895 2.352064 15.598000 # CA CNT
149 149 1 0.000000 4.073895 2.352064 12.762000 # CA CNT
150 150 1 0.000000 3.326321 3.326321 13.471000 # CA CNT
151 151 1 0.000000 3.326321 3.326321 14.889000 # CA CNT
152 152 1 0.000000 2.352064 4.073895 15.598000 # CA CNT
153 153 1 0.000000 2.352064 4.073895 12.762000 # CA CNT
154 154 1 0.000000 1.217518 4.543839 13.471000 # CA CNT
155 155 1 0.000000 1.217518 4.543839 14.889000 # CA CNT
156 156 1 0.000000 0.000000 4.704129 15.598000 # CA CNT
157 157 1 0.000000 0.000000 4.704129 12.762000 # CA CNT
158 158 1 0.000000 -1.217518 4.543839 13.471000 # CA CNT
159 159 1 0.000000 -1.217518 4.543839 14.889000 # CA CNT
160 160 1 0.000000 -2.352064 4.073895 15.598000 # CA CNT
161 161 1 0.000000 -2.352064 4.073895 12.762000 # CA CNT
162 162 1 0.000000 -3.326321 3.326321 13.471000 # CA CNT
163 163 1 0.000000 -3.326321 3.326321 14.889000 # CA CNT
164 164 1 0.000000 -4.073895 2.352064 15.598000 # CA CNT
165 165 1 0.000000 -4.073895 2.352064 12.762000 # CA CNT
166 166 1 0.000000 -4.543839 1.217518 13.471000 # CA CNT
167 167 1 0.000000 -4.543839 1.217518 14.889000 # CA CNT
168 168 1 0.000000 -4.704129 0.000000 15.598000 # CA CNT
169 169 1 0.000000 -4.704129 0.000000 12.762000 # CA CNT
170 170 1 0.000000 -4.543839 -1.217518 13.471000 # CA CNT
171 171 1 0.000000 -4.543839 -1.217518 14.889000 # CA CNT
172 172 1 0.000000 -4.073895 -2.352064 15.598000 # CA CNT
173 173 1 0.000000 -4.073895 -2.352064 12.762000 # CA CNT
174 174 1 0.000000 -3.326321 -3.326321 13.471000 # CA CNT
175 175 1 0.000000 -3.326321 -3.326321 14.889000 # CA CNT
176 176 1 0.000000 -2.352064 -4.073895 15.598000 # CA CNT
177 177 1 0.000000 -2.352064 -4.073895 12.762000 # CA CNT
178 178 1 0.000000 -1.217518 -4.543839 13.471000 # CA CNT
179 179 1 0.000000 -1.217518 -4.543839 14.889000 # CA CNT
180 180 1 0.000000 -0.000000 -4.704129 15.598000 # CA CNT
181 181 1 0.000000 -0.000000 -4.704129 12.762000 # CA CNT
182 182 1 0.000000 1.217518 -4.543839 13.471000 # CA CNT
183 183 1 0.000000 1.217518 -4.543839 14.889000 # CA CNT
184 184 1 0.000000 2.352064 -4.073895 15.598000 # CA CNT
185 185 1 0.000000 2.352064 -4.073895 12.762000 # CA CNT
186 186 1 0.000000 3.326321 -3.326321 13.471000 # CA CNT
187 187 1 0.000000 3.326321 -3.326321 14.889000 # CA CNT
188 188 1 0.000000 4.073895 -2.352064 15.598000 # CA CNT
189 189 1 0.000000 4.073895 -2.352064 12.762000 # CA CNT
190 190 1 0.000000 4.543839 -1.217518 13.471000 # CA CNT
191 191 1 0.000000 4.543839 -1.217518 14.889000 # CA CNT
192 192 1 0.000000 4.704129 -0.000000 15.598000 # CA CNT
193 193 1 0.000000 4.704129 0.000000 17.016001 # CA CNT
194 194 1 0.000000 4.543839 1.217518 17.725000 # CA CNT
195 195 1 0.000000 4.543839 1.217518 19.143000 # CA CNT
196 196 1 0.000000 4.073895 2.352064 19.851999 # CA CNT
197 197 1 0.000000 4.073895 2.352064 17.016001 # CA CNT
198 198 1 0.000000 3.326321 3.326321 17.725000 # CA CNT
199 199 1 0.000000 3.326321 3.326321 19.143000 # CA CNT
200 200 1 0.000000 2.352064 4.073895 19.851999 # CA CNT
201 201 1 0.000000 2.352064 4.073895 17.016001 # CA CNT
202 202 1 0.000000 1.217518 4.543839 17.725000 # CA CNT
203 203 1 0.000000 1.217518 4.543839 19.143000 # CA CNT
204 204 1 0.000000 0.000000 4.704129 19.851999 # CA CNT
205 205 1 0.000000 0.000000 4.704129 17.016001 # CA CNT
206 206 1 0.000000 -1.217518 4.543839 17.725000 # CA CNT
207 207 1 0.000000 -1.217518 4.543839 19.143000 # CA CNT
208 208 1 0.000000 -2.352064 4.073895 19.851999 # CA CNT
209 209 1 0.000000 -2.352064 4.073895 17.016001 # CA CNT
210 210 1 0.000000 -3.326321 3.326321 17.725000 # CA CNT
211 211 1 0.000000 -3.326321 3.326321 19.143000 # CA CNT
212 212 1 0.000000 -4.073895 2.352064 19.851999 # CA CNT
213 213 1 0.000000 -4.073895 2.352064 17.016001 # CA CNT
214 214 1 0.000000 -4.543839 1.217518 17.725000 # CA CNT
215 215 1 0.000000 -4.543839 1.217518 19.143000 # CA CNT
216 216 1 0.000000 -4.704129 0.000000 19.851999 # CA CNT
217 217 1 0.000000 -4.704129 0.000000 17.016001 # CA CNT
218 218 1 0.000000 -4.543839 -1.217518 17.725000 # CA CNT
219 219 1 0.000000 -4.543839 -1.217518 19.143000 # CA CNT
220 220 1 0.000000 -4.073895 -2.352064 19.851999 # CA CNT
221 221 1 0.000000 -4.073895 -2.352064 17.016001 # CA CNT
222 222 1 0.000000 -3.326321 -3.326321 17.725000 # CA CNT
223 223 1 0.000000 -3.326321 -3.326321 19.143000 # CA CNT
224 224 1 0.000000 -2.352064 -4.073895 19.851999 # CA CNT
225 225 1 0.000000 -2.352064 -4.073895 17.016001 # CA CNT
226 226 1 0.000000 -1.217518 -4.543839 17.725000 # CA CNT
227 227 1 0.000000 -1.217518 -4.543839 19.143000 # CA CNT
228 228 1 0.000000 -0.000000 -4.704129 19.851999 # CA CNT
229 229 1 0.000000 -0.000000 -4.704129 17.016001 # CA CNT
230 230 1 0.000000 1.217518 -4.543839 17.725000 # CA CNT
231 231 1 0.000000 1.217518 -4.543839 19.143000 # CA CNT
232 232 1 0.000000 2.352064 -4.073895 19.851999 # CA CNT
233 233 1 0.000000 2.352064 -4.073895 17.016001 # CA CNT
234 234 1 0.000000 3.326321 -3.326321 17.725000 # CA CNT
235 235 1 0.000000 3.326321 -3.326321 19.143000 # CA CNT
236 236 1 0.000000 4.073895 -2.352064 19.851999 # CA CNT
237 237 1 0.000000 4.073895 -2.352064 17.016001 # CA CNT
238 238 1 0.000000 4.543839 -1.217518 17.725000 # CA CNT
239 239 1 0.000000 4.543839 -1.217518 19.143000 # CA CNT
240 240 1 0.000000 4.704129 -0.000000 19.851999 # CA CNT
241 241 1 0.000000 4.704129 0.000000 21.270000 # CA CNT
242 242 1 0.000000 4.543839 1.217518 21.979000 # CA CNT
243 243 1 0.000000 4.543839 1.217518 23.396999 # CA CNT
244 244 1 0.000000 4.073895 2.352064 24.106001 # CA CNT
245 245 1 0.000000 4.073895 2.352064 21.270000 # CA CNT
246 246 1 0.000000 3.326321 3.326321 21.979000 # CA CNT
247 247 1 0.000000 3.326321 3.326321 23.396999 # CA CNT
248 248 1 0.000000 2.352064 4.073895 24.106001 # CA CNT
249 249 1 0.000000 2.352064 4.073895 21.270000 # CA CNT
250 250 1 0.000000 1.217518 4.543839 21.979000 # CA CNT
251 251 1 0.000000 1.217518 4.543839 23.396999 # CA CNT
252 252 1 0.000000 0.000000 4.704129 24.106001 # CA CNT
253 253 1 0.000000 0.000000 4.704129 21.270000 # CA CNT
254 254 1 0.000000 -1.217518 4.543839 21.979000 # CA CNT
255 255 1 0.000000 -1.217518 4.543839 23.396999 # CA CNT
256 256 1 0.000000 -2.352064 4.073895 24.106001 # CA CNT
257 257 1 0.000000 -2.352064 4.073895 21.270000 # CA CNT
258 258 1 0.000000 -3.326321 3.326321 21.979000 # CA CNT
259 259 1 0.000000 -3.326321 3.326321 23.396999 # CA CNT
260 260 1 0.000000 -4.073895 2.352064 24.106001 # CA CNT
261 261 1 0.000000 -4.073895 2.352064 21.270000 # CA CNT
262 262 1 0.000000 -4.543839 1.217518 21.979000 # CA CNT
263 263 1 0.000000 -4.543839 1.217518 23.396999 # CA CNT
264 264 1 0.000000 -4.704129 0.000000 24.106001 # CA CNT
265 265 1 0.000000 -4.704129 0.000000 21.270000 # CA CNT
266 266 1 0.000000 -4.543839 -1.217518 21.979000 # CA CNT
267 267 1 0.000000 -4.543839 -1.217518 23.396999 # CA CNT
268 268 1 0.000000 -4.073895 -2.352064 24.106001 # CA CNT
269 269 1 0.000000 -4.073895 -2.352064 21.270000 # CA CNT
270 270 1 0.000000 -3.326321 -3.326321 21.979000 # CA CNT
271 271 1 0.000000 -3.326321 -3.326321 23.396999 # CA CNT
272 272 1 0.000000 -2.352064 -4.073895 24.106001 # CA CNT
273 273 1 0.000000 -2.352064 -4.073895 21.270000 # CA CNT
274 274 1 0.000000 -1.217518 -4.543839 21.979000 # CA CNT
275 275 1 0.000000 -1.217518 -4.543839 23.396999 # CA CNT
276 276 1 0.000000 -0.000000 -4.704129 24.106001 # CA CNT
277 277 1 0.000000 -0.000000 -4.704129 21.270000 # CA CNT
278 278 1 0.000000 1.217518 -4.543839 21.979000 # CA CNT
279 279 1 0.000000 1.217518 -4.543839 23.396999 # CA CNT
280 280 1 0.000000 2.352064 -4.073895 24.106001 # CA CNT
281 281 1 0.000000 2.352064 -4.073895 21.270000 # CA CNT
282 282 1 0.000000 3.326321 -3.326321 21.979000 # CA CNT
283 283 1 0.000000 3.326321 -3.326321 23.396999 # CA CNT
284 284 1 0.000000 4.073895 -2.352064 24.106001 # CA CNT
285 285 1 0.000000 4.073895 -2.352064 21.270000 # CA CNT
286 286 1 0.000000 4.543839 -1.217518 21.979000 # CA CNT
287 287 1 0.000000 4.543839 -1.217518 23.396999 # CA CNT
288 288 1 0.000000 4.704129 -0.000000 24.106001 # CA CNT
289 289 1 0.000000 4.704129 0.000000 25.524000 # CA CNT
290 290 1 0.000000 4.543839 1.217518 26.233000 # CA CNT
291 291 1 0.000000 4.543839 1.217518 27.650999 # CA CNT
292 292 1 0.000000 4.073895 2.352064 28.360001 # CA CNT
293 293 1 0.000000 4.073895 2.352064 25.524000 # CA CNT
294 294 1 0.000000 3.326321 3.326321 26.233000 # CA CNT
295 295 1 0.000000 3.326321 3.326321 27.650999 # CA CNT
296 296 1 0.000000 2.352064 4.073895 28.360001 # CA CNT
297 297 1 0.000000 2.352064 4.073895 25.524000 # CA CNT
298 298 1 0.000000 1.217518 4.543839 26.233000 # CA CNT
299 299 1 0.000000 1.217518 4.543839 27.650999 # CA CNT
300 300 1 0.000000 0.000000 4.704129 28.360001 # CA CNT
301 301 1 0.000000 0.000000 4.704129 25.524000 # CA CNT
302 302 1 0.000000 -1.217518 4.543839 26.233000 # CA CNT
303 303 1 0.000000 -1.217518 4.543839 27.650999 # CA CNT
304 304 1 0.000000 -2.352064 4.073895 28.360001 # CA CNT
305 305 1 0.000000 -2.352064 4.073895 25.524000 # CA CNT
306 306 1 0.000000 -3.326321 3.326321 26.233000 # CA CNT
307 307 1 0.000000 -3.326321 3.326321 27.650999 # CA CNT
308 308 1 0.000000 -4.073895 2.352064 28.360001 # CA CNT
309 309 1 0.000000 -4.073895 2.352064 25.524000 # CA CNT
310 310 1 0.000000 -4.543839 1.217518 26.233000 # CA CNT
311 311 1 0.000000 -4.543839 1.217518 27.650999 # CA CNT
312 312 1 0.000000 -4.704129 0.000000 28.360001 # CA CNT
313 313 1 0.000000 -4.704129 0.000000 25.524000 # CA CNT
314 314 1 0.000000 -4.543839 -1.217518 26.233000 # CA CNT
315 315 1 0.000000 -4.543839 -1.217518 27.650999 # CA CNT
316 316 1 0.000000 -4.073895 -2.352064 28.360001 # CA CNT
317 317 1 0.000000 -4.073895 -2.352064 25.524000 # CA CNT
318 318 1 0.000000 -3.326321 -3.326321 26.233000 # CA CNT
319 319 1 0.000000 -3.326321 -3.326321 27.650999 # CA CNT
320 320 1 0.000000 -2.352064 -4.073895 28.360001 # CA CNT
321 321 1 0.000000 -2.352064 -4.073895 25.524000 # CA CNT
322 322 1 0.000000 -1.217518 -4.543839 26.233000 # CA CNT
323 323 1 0.000000 -1.217518 -4.543839 27.650999 # CA CNT
324 324 1 0.000000 -0.000000 -4.704129 28.360001 # CA CNT
325 325 1 0.000000 -0.000000 -4.704129 25.524000 # CA CNT
326 326 1 0.000000 1.217518 -4.543839 26.233000 # CA CNT
327 327 1 0.000000 1.217518 -4.543839 27.650999 # CA CNT
328 328 1 0.000000 2.352064 -4.073895 28.360001 # CA CNT
329 329 1 0.000000 2.352064 -4.073895 25.524000 # CA CNT
330 330 1 0.000000 3.326321 -3.326321 26.233000 # CA CNT
331 331 1 0.000000 3.326321 -3.326321 27.650999 # CA CNT
332 332 1 0.000000 4.073895 -2.352064 28.360001 # CA CNT
333 333 1 0.000000 4.073895 -2.352064 25.524000 # CA CNT
334 334 1 0.000000 4.543839 -1.217518 26.233000 # CA CNT
335 335 1 0.000000 4.543839 -1.217518 27.650999 # CA CNT
336 336 1 0.000000 4.704129 -0.000000 28.360001 # CA CNT
337 337 1 0.000000 4.704129 0.000000 29.778000 # CA CNT
338 338 1 0.000000 4.543839 1.217518 30.487000 # CA CNT
339 339 1 0.000000 4.543839 1.217518 31.905001 # CA CNT
340 340 1 0.000000 4.073895 2.352064 32.613998 # CA CNT
341 341 1 0.000000 4.073895 2.352064 29.778000 # CA CNT
342 342 1 0.000000 3.326321 3.326321 30.487000 # CA CNT
343 343 1 0.000000 3.326321 3.326321 31.905001 # CA CNT
344 344 1 0.000000 2.352064 4.073895 32.613998 # CA CNT
345 345 1 0.000000 2.352064 4.073895 29.778000 # CA CNT
346 346 1 0.000000 1.217518 4.543839 30.487000 # CA CNT
347 347 1 0.000000 1.217518 4.543839 31.905001 # CA CNT
348 348 1 0.000000 0.000000 4.704129 32.613998 # CA CNT
349 349 1 0.000000 0.000000 4.704129 29.778000 # CA CNT
350 350 1 0.000000 -1.217518 4.543839 30.487000 # CA CNT
351 351 1 0.000000 -1.217518 4.543839 31.905001 # CA CNT
352 352 1 0.000000 -2.352064 4.073895 32.613998 # CA CNT
353 353 1 0.000000 -2.352064 4.073895 29.778000 # CA CNT
354 354 1 0.000000 -3.326321 3.326321 30.487000 # CA CNT
355 355 1 0.000000 -3.326321 3.326321 31.905001 # CA CNT
356 356 1 0.000000 -4.073895 2.352064 32.613998 # CA CNT
357 357 1 0.000000 -4.073895 2.352064 29.778000 # CA CNT
358 358 1 0.000000 -4.543839 1.217518 30.487000 # CA CNT
359 359 1 0.000000 -4.543839 1.217518 31.905001 # CA CNT
360 360 1 0.000000 -4.704129 0.000000 32.613998 # CA CNT
361 361 1 0.000000 -4.704129 0.000000 29.778000 # CA CNT
362 362 1 0.000000 -4.543839 -1.217518 30.487000 # CA CNT
363 363 1 0.000000 -4.543839 -1.217518 31.905001 # CA CNT
364 364 1 0.000000 -4.073895 -2.352064 32.613998 # CA CNT
365 365 1 0.000000 -4.073895 -2.352064 29.778000 # CA CNT
366 366 1 0.000000 -3.326321 -3.326321 30.487000 # CA CNT
367 367 1 0.000000 -3.326321 -3.326321 31.905001 # CA CNT
368 368 1 0.000000 -2.352064 -4.073895 32.613998 # CA CNT
369 369 1 0.000000 -2.352064 -4.073895 29.778000 # CA CNT
370 370 1 0.000000 -1.217518 -4.543839 30.487000 # CA CNT
371 371 1 0.000000 -1.217518 -4.543839 31.905001 # CA CNT
372 372 1 0.000000 -0.000000 -4.704129 32.613998 # CA CNT
373 373 1 0.000000 -0.000000 -4.704129 29.778000 # CA CNT
374 374 1 0.000000 1.217518 -4.543839 30.487000 # CA CNT
375 375 1 0.000000 1.217518 -4.543839 31.905001 # CA CNT
376 376 1 0.000000 2.352064 -4.073895 32.613998 # CA CNT
377 377 1 0.000000 2.352064 -4.073895 29.778000 # CA CNT
378 378 1 0.000000 3.326321 -3.326321 30.487000 # CA CNT
379 379 1 0.000000 3.326321 -3.326321 31.905001 # CA CNT
380 380 1 0.000000 4.073895 -2.352064 32.613998 # CA CNT
381 381 1 0.000000 4.073895 -2.352064 29.778000 # CA CNT
382 382 1 0.000000 4.543839 -1.217518 30.487000 # CA CNT
383 383 1 0.000000 4.543839 -1.217518 31.905001 # CA CNT
384 384 1 0.000000 4.704129 -0.000000 32.613998 # CA CNT
385 385 1 0.000000 4.704129 0.000000 34.032001 # CA CNT
386 386 1 0.000000 4.543839 1.217518 34.741001 # CA CNT
387 387 1 0.000000 4.543839 1.217518 36.159000 # CA CNT
388 388 1 0.000000 4.073895 2.352064 36.868000 # CA CNT
389 389 1 0.000000 4.073895 2.352064 34.032001 # CA CNT
390 390 1 0.000000 3.326321 3.326321 34.741001 # CA CNT
391 391 1 0.000000 3.326321 3.326321 36.159000 # CA CNT
392 392 1 0.000000 2.352064 4.073895 36.868000 # CA CNT
393 393 1 0.000000 2.352064 4.073895 34.032001 # CA CNT
394 394 1 0.000000 1.217518 4.543839 34.741001 # CA CNT
395 395 1 0.000000 1.217518 4.543839 36.159000 # CA CNT
396 396 1 0.000000 0.000000 4.704129 36.868000 # CA CNT
397 397 1 0.000000 0.000000 4.704129 34.032001 # CA CNT
398 398 1 0.000000 -1.217518 4.543839 34.741001 # CA CNT
399 399 1 0.000000 -1.217518 4.543839 36.159000 # CA CNT
400 400 1 0.000000 -2.352064 4.073895 36.868000 # CA CNT
401 401 1 0.000000 -2.352064 4.073895 34.032001 # CA CNT
402 402 1 0.000000 -3.326321 3.326321 34.741001 # CA CNT
403 403 1 0.000000 -3.326321 3.326321 36.159000 # CA CNT
404 404 1 0.000000 -4.073895 2.352064 36.868000 # CA CNT
405 405 1 0.000000 -4.073895 2.352064 34.032001 # CA CNT
406 406 1 0.000000 -4.543839 1.217518 34.741001 # CA CNT
407 407 1 0.000000 -4.543839 1.217518 36.159000 # CA CNT
408 408 1 0.000000 -4.704129 0.000000 36.868000 # CA CNT
409 409 1 0.000000 -4.704129 0.000000 34.032001 # CA CNT
410 410 1 0.000000 -4.543839 -1.217518 34.741001 # CA CNT
411 411 1 0.000000 -4.543839 -1.217518 36.159000 # CA CNT
412 412 1 0.000000 -4.073895 -2.352064 36.868000 # CA CNT
413 413 1 0.000000 -4.073895 -2.352064 34.032001 # CA CNT
414 414 1 0.000000 -3.326321 -3.326321 34.741001 # CA CNT
415 415 1 0.000000 -3.326321 -3.326321 36.159000 # CA CNT
416 416 1 0.000000 -2.352064 -4.073895 36.868000 # CA CNT
417 417 1 0.000000 -2.352064 -4.073895 34.032001 # CA CNT
418 418 1 0.000000 -1.217518 -4.543839 34.741001 # CA CNT
419 419 1 0.000000 -1.217518 -4.543839 36.159000 # CA CNT
420 420 1 0.000000 -0.000000 -4.704129 36.868000 # CA CNT
421 421 1 0.000000 -0.000000 -4.704129 34.032001 # CA CNT
422 422 1 0.000000 1.217518 -4.543839 34.741001 # CA CNT
423 423 1 0.000000 1.217518 -4.543839 36.159000 # CA CNT
424 424 1 0.000000 2.352064 -4.073895 36.868000 # CA CNT
425 425 1 0.000000 2.352064 -4.073895 34.032001 # CA CNT
426 426 1 0.000000 3.326321 -3.326321 34.741001 # CA CNT
427 427 1 0.000000 3.326321 -3.326321 36.159000 # CA CNT
428 428 1 0.000000 4.073895 -2.352064 36.868000 # CA CNT
429 429 1 0.000000 4.073895 -2.352064 34.032001 # CA CNT
430 430 1 0.000000 4.543839 -1.217518 34.741001 # CA CNT
431 431 1 0.000000 4.543839 -1.217518 36.159000 # CA CNT
432 432 1 0.000000 4.704129 -0.000000 36.868000 # CA CNT
433 433 1 0.000000 4.704129 0.000000 38.285999 # CA CNT
434 434 1 0.000000 4.543839 1.217518 38.994999 # CA CNT
435 435 1 0.000000 4.543839 1.217518 40.412998 # CA CNT
436 436 1 0.000000 4.073895 2.352064 41.122002 # CA CNT
437 437 1 0.000000 4.073895 2.352064 38.285999 # CA CNT
438 438 1 0.000000 3.326321 3.326321 38.994999 # CA CNT
439 439 1 0.000000 3.326321 3.326321 40.412998 # CA CNT
440 440 1 0.000000 2.352064 4.073895 41.122002 # CA CNT
441 441 1 0.000000 2.352064 4.073895 38.285999 # CA CNT
442 442 1 0.000000 1.217518 4.543839 38.994999 # CA CNT
443 443 1 0.000000 1.217518 4.543839 40.412998 # CA CNT
444 444 1 0.000000 0.000000 4.704129 41.122002 # CA CNT
445 445 1 0.000000 0.000000 4.704129 38.285999 # CA CNT
446 446 1 0.000000 -1.217518 4.543839 38.994999 # CA CNT
447 447 1 0.000000 -1.217518 4.543839 40.412998 # CA CNT
448 448 1 0.000000 -2.352064 4.073895 41.122002 # CA CNT
449 449 1 0.000000 -2.352064 4.073895 38.285999 # CA CNT
450 450 1 0.000000 -3.326321 3.326321 38.994999 # CA CNT
451 451 1 0.000000 -3.326321 3.326321 40.412998 # CA CNT
452 452 1 0.000000 -4.073895 2.352064 41.122002 # CA CNT
453 453 1 0.000000 -4.073895 2.352064 38.285999 # CA CNT
454 454 1 0.000000 -4.543839 1.217518 38.994999 # CA CNT
455 455 1 0.000000 -4.543839 1.217518 40.412998 # CA CNT
456 456 1 0.000000 -4.704129 0.000000 41.122002 # CA CNT
457 457 1 0.000000 -4.704129 0.000000 38.285999 # CA CNT
458 458 1 0.000000 -4.543839 -1.217518 38.994999 # CA CNT
459 459 1 0.000000 -4.543839 -1.217518 40.412998 # CA CNT
460 460 1 0.000000 -4.073895 -2.352064 41.122002 # CA CNT
461 461 1 0.000000 -4.073895 -2.352064 38.285999 # CA CNT
462 462 1 0.000000 -3.326321 -3.326321 38.994999 # CA CNT
463 463 1 0.000000 -3.326321 -3.326321 40.412998 # CA CNT
464 464 1 0.000000 -2.352064 -4.073895 41.122002 # CA CNT
465 465 1 0.000000 -2.352064 -4.073895 38.285999 # CA CNT
466 466 1 0.000000 -1.217518 -4.543839 38.994999 # CA CNT
467 467 1 0.000000 -1.217518 -4.543839 40.412998 # CA CNT
468 468 1 0.000000 -0.000000 -4.704129 41.122002 # CA CNT
469 469 1 0.000000 -0.000000 -4.704129 38.285999 # CA CNT
470 470 1 0.000000 1.217518 -4.543839 38.994999 # CA CNT
471 471 1 0.000000 1.217518 -4.543839 40.412998 # CA CNT
472 472 1 0.000000 2.352064 -4.073895 41.122002 # CA CNT
473 473 1 0.000000 2.352064 -4.073895 38.285999 # CA CNT
474 474 1 0.000000 3.326321 -3.326321 38.994999 # CA CNT
475 475 1 0.000000 3.326321 -3.326321 40.412998 # CA CNT
476 476 1 0.000000 4.073895 -2.352064 41.122002 # CA CNT
477 477 1 0.000000 4.073895 -2.352064 38.285999 # CA CNT
478 478 1 0.000000 4.543839 -1.217518 38.994999 # CA CNT
479 479 1 0.000000 4.543839 -1.217518 40.412998 # CA CNT
480 480 1 0.000000 4.704129 -0.000000 41.122002 # CA CNT
481 481 1 0.000000 4.704129 0.000000 42.540001 # CA CNT
482 482 1 0.000000 4.543839 1.217518 43.249001 # CA CNT
483 483 1 0.000000 4.543839 1.217518 44.667000 # CA CNT
484 484 1 0.000000 4.073895 2.352064 45.375999 # CA CNT
485 485 1 0.000000 4.073895 2.352064 42.540001 # CA CNT
486 486 1 0.000000 3.326321 3.326321 43.249001 # CA CNT
487 487 1 0.000000 3.326321 3.326321 44.667000 # CA CNT
488 488 1 0.000000 2.352064 4.073895 45.375999 # CA CNT
489 489 1 0.000000 2.352064 4.073895 42.540001 # CA CNT
490 490 1 0.000000 1.217518 4.543839 43.249001 # CA CNT
491 491 1 0.000000 1.217518 4.543839 44.667000 # CA CNT
492 492 1 0.000000 0.000000 4.704129 45.375999 # CA CNT
493 493 1 0.000000 0.000000 4.704129 42.540001 # CA CNT
494 494 1 0.000000 -1.217518 4.543839 43.249001 # CA CNT
495 495 1 0.000000 -1.217518 4.543839 44.667000 # CA CNT
496 496 1 0.000000 -2.352064 4.073895 45.375999 # CA CNT
497 497 1 0.000000 -2.352064 4.073895 42.540001 # CA CNT
498 498 1 0.000000 -3.326321 3.326321 43.249001 # CA CNT
499 499 1 0.000000 -3.326321 3.326321 44.667000 # CA CNT
500 500 1 0.000000 -4.073895 2.352064 45.375999 # CA CNT
501 501 1 0.000000 -4.073895 2.352064 42.540001 # CA CNT
502 502 1 0.000000 -4.543839 1.217518 43.249001 # CA CNT
503 503 1 0.000000 -4.543839 1.217518 44.667000 # CA CNT
504 504 1 0.000000 -4.704129 0.000000 45.375999 # CA CNT
505 505 1 0.000000 -4.704129 0.000000 42.540001 # CA CNT
506 506 1 0.000000 -4.543839 -1.217518 43.249001 # CA CNT
507 507 1 0.000000 -4.543839 -1.217518 44.667000 # CA CNT
508 508 1 0.000000 -4.073895 -2.352064 45.375999 # CA CNT
509 509 1 0.000000 -4.073895 -2.352064 42.540001 # CA CNT
510 510 1 0.000000 -3.326321 -3.326321 43.249001 # CA CNT
511 511 1 0.000000 -3.326321 -3.326321 44.667000 # CA CNT
512 512 1 0.000000 -2.352064 -4.073895 45.375999 # CA CNT
513 513 1 0.000000 -2.352064 -4.073895 42.540001 # CA CNT
514 514 1 0.000000 -1.217518 -4.543839 43.249001 # CA CNT
515 515 1 0.000000 -1.217518 -4.543839 44.667000 # CA CNT
516 516 1 0.000000 -0.000000 -4.704129 45.375999 # CA CNT
517 517 1 0.000000 -0.000000 -4.704129 42.540001 # CA CNT
518 518 1 0.000000 1.217518 -4.543839 43.249001 # CA CNT
519 519 1 0.000000 1.217518 -4.543839 44.667000 # CA CNT
520 520 1 0.000000 2.352064 -4.073895 45.375999 # CA CNT
521 521 1 0.000000 2.352064 -4.073895 42.540001 # CA CNT
522 522 1 0.000000 3.326321 -3.326321 43.249001 # CA CNT
523 523 1 0.000000 3.326321 -3.326321 44.667000 # CA CNT
524 524 1 0.000000 4.073895 -2.352064 45.375999 # CA CNT
525 525 1 0.000000 4.073895 -2.352064 42.540001 # CA CNT