LAMMPS data file. CGCMM style. atom_style full generated by VMD/TopoTools v1.5 on Fri Oct 31 15:37:18 CST 2014
 765 atoms
 1964 bonds
 0 angles
 0 dihedrals
 0 impropers
 3 atom types
 1 bond types
 0 angle types
 0 dihedral types
 0 improper types
 -5.500000 5.500000  xlo xhi
 -5.500000 5.500000  ylo yhi
 -80.500000 80.500000  zlo zhi

# Pair Coeffs
#
# 1  C
# 2  H
# 3  O

# Bond Coeffs
#
# 1  

 Masses

 1 12.010700 # C
 2 1.007940 # H
 3 15.999400 # O

 Atoms

1 1 1 0.000000 4.657000 0.613000 0.686000 # C MOL
2 1 1 0.000000 4.657000 0.613000 2.106000 # C MOL
3 1 1 0.000000 4.340000 1.798000 2.816000 # C MOL
4 1 1 0.000000 3.727000 2.860000 0.686000 # C MOL
5 1 1 0.000000 3.727000 2.860000 2.106000 # C MOL
6 1 1 0.000000 2.860000 3.727000 2.816000 # C MOL
7 1 1 0.000000 4.340000 1.798000 4.236000 # C MOL
8 1 1 0.000000 1.798000 4.340000 0.686000 # C MOL
9 1 1 0.000000 1.798000 4.340000 2.106000 # C MOL
10 1 1 0.000000 0.613000 4.657000 2.816000 # C MOL
11 1 1 0.000000 2.860000 3.727000 4.236000 # C MOL
12 1 1 0.000000 -0.613000 4.657000 0.686000 # C MOL
13 1 1 0.000000 -0.613000 4.657000 2.106000 # C MOL
14 1 1 0.000000 -1.798000 4.340000 2.816000 # C MOL
15 1 1 0.000000 0.613000 4.657000 4.236000 # C MOL
16 1 1 0.000000 -2.860000 3.727000 0.686000 # C MOL
17 1 1 0.000000 -2.860000 3.727000 2.106000 # C MOL
18 1 1 0.000000 -3.727000 2.860000 2.816000 # C MOL
19 1 1 0.000000 -1.798000 4.340000 4.236000 # C MOL
20 1 1 0.000000 -4.340000 1.798000 0.686000 # C MOL
21 1 1 0.000000 -4.340000 1.798000 2.106000 # C MOL
22 1 1 0.000000 -4.657000 0.613000 2.816000 # C MOL
23 1 1 0.000000 -3.727000 2.860000 4.236000 # C MOL
24 1 1 0.000000 -4.657000 -0.613000 0.686000 # C MOL
25 1 1 0.000000 -4.657000 -0.613000 2.106000 # C MOL
26 1 1 0.000000 -4.340000 -1.798000 2.816000 # C MOL
27 1 1 0.000000 -4.657000 0.613000 4.236000 # C MOL
28 1 1 0.000000 -3.727000 -2.860000 0.686000 # C MOL
29 1 1 0.000000 -3.727000 -2.860000 2.106000 # C MOL
30 1 1 0.000000 -2.860000 -3.727000 2.816000 # C MOL
31 1 1 0.000000 -4.340000 -1.798000 4.236000 # C MOL
32 1 1 0.000000 -1.798000 -4.340000 0.686000 # C MOL
33 1 1 0.000000 -1.798000 -4.340000 2.106000 # C MOL
34 1 1 0.000000 -0.613000 -4.657000 2.816000 # C MOL
35 1 1 0.000000 -2.860000 -3.727000 4.236000 # C MOL
36 1 1 0.000000 0.613000 -4.657000 0.686000 # C MOL
37 1 1 0.000000 0.613000 -4.657000 2.106000 # C MOL
38 1 1 0.000000 1.798000 -4.340000 2.816000 # C MOL
39 1 1 0.000000 -0.613000 -4.657000 4.236000 # C MOL
40 1 1 0.000000 2.860000 -3.727000 0.686000 # C MOL
41 1 1 0.000000 2.860000 -3.727000 2.106000 # C MOL
42 1 1 0.000000 3.727000 -2.860000 2.816000 # C MOL
43 1 1 0.000000 1.798000 -4.340000 4.236000 # C MOL
44 1 1 0.000000 4.340000 -1.798000 0.686000 # C MOL
45 1 1 0.000000 4.340000 -1.798000 2.106000 # C MOL
46 1 1 0.000000 4.657000 -0.613000 2.816000 # C MOL
47 1 1 0.000000 3.727000 -2.860000 4.236000 # C MOL
48 1 1 0.000000 4.657000 -0.613000 4.236000 # C MOL
49 1 1 0.000000 4.657000 0.613000 4.946000 # C MOL
50 1 1 0.000000 4.657000 0.613000 6.366000 # C MOL
51 1 1 0.000000 4.340000 1.798000 7.076000 # C MOL
52 1 1 0.000000 3.727000 2.860000 4.946000 # C MOL
53 1 1 0.000000 3.727000 2.860000 6.366000 # C MOL
54 1 1 0.000000 2.860000 3.727000 7.076000 # C MOL
55 1 1 0.000000 4.340000 1.798000 8.496000 # C MOL
56 1 1 0.000000 1.798000 4.340000 4.946000 # C MOL
57 1 1 0.000000 1.798000 4.340000 6.366000 # C MOL
58 1 1 0.000000 0.613000 4.657000 7.076000 # C MOL
59 1 1 0.000000 2.860000 3.727000 8.496000 # C MOL
60 1 1 0.000000 -0.613000 4.657000 4.946000 # C MOL
61 1 1 0.000000 -0.613000 4.657000 6.366000 # C MOL
62 1 1 0.000000 -1.798000 4.340000 7.076000 # C MOL
63 1 1 0.000000 0.613000 4.657000 8.496000 # C MOL
64 1 1 0.000000 -2.860000 3.727000 4.946000 # C MOL
65 1 1 0.000000 -2.860000 3.727000 6.366000 # C MOL
66 1 1 0.000000 -3.727000 2.860000 7.076000 # C MOL
67 1 1 0.000000 -1.798000 4.340000 8.496000 # C MOL
68 1 1 0.000000 -4.340000 1.798000 4.946000 # C MOL
69 1 1 0.000000 -4.340000 1.798000 6.366000 # C MOL
70 1 1 0.000000 -4.657000 0.613000 7.076000 # C MOL
71 1 1 0.000000 -3.727000 2.860000 8.496000 # C MOL
72 1 1 0.000000 -4.657000 -0.613000 4.946000 # C MOL
73 1 1 0.000000 -4.657000 -0.613000 6.366000 # C MOL
74 1 1 0.000000 -4.340000 -1.798000 7.076000 # C MOL
75 1 1 0.000000 -4.657000 0.613000 8.496000 # C MOL
76 1 1 0.000000 -3.727000 -2.860000 4.946000 # C MOL
77 1 1 0.000000 -3.727000 -2.860000 6.366000 # C MOL
78 1 1 0.000000 -2.860000 -3.727000 7.076000 # C MOL
79 1 1 0.000000 -4.340000 -1.798000 8.496000 # C MOL
80 1 1 0.000000 -1.798000 -4.340000 4.946000 # C MOL
81 1 1 0.000000 -1.798000 -4.340000 6.366000 # C MOL
82 1 1 0.000000 -0.613000 -4.657000 7.076000 # C MOL
83 1 1 0.000000 -2.860000 -3.727000 8.496000 # C MOL
84 1 1 0.000000 0.613000 -4.657000 4.946000 # C MOL
85 1 1 0.000000 0.613000 -4.657000 6.366000 # C MOL
86 1 1 0.000000 1.798000 -4.340000 7.076000 # C MOL
87 1 1 0.000000 -0.613000 -4.657000 8.496000 # C MOL
88 1 1 0.000000 2.860000 -3.727000 4.946000 # C MOL
89 1 1 0.000000 2.860000 -3.727000 6.366000 # C MOL
90 1 1 0.000000 3.727000 -2.860000 7.076000 # C MOL
91 1 1 0.000000 1.798000 -4.340000 8.496000 # C MOL
92 1 1 0.000000 4.340000 -1.798000 4.946000 # C MOL
93 1 1 0.000000 4.340000 -1.798000 6.366000 # C MOL
94 1 1 0.000000 4.657000 -0.613000 7.076000 # C MOL
95 1 1 0.000000 3.727000 -2.860000 8.496000 # C MOL
96 1 1 0.000000 4.657000 -0.613000 8.496000 # C MOL
97 1 1 0.000000 4.657000 0.613000 9.206000 # C MOL
98 1 1 0.000000 4.657000 0.613000 10.626000 # C MOL
99 1 1 0.000000 4.340000 1.798000 11.336000 # C MOL
100 1 1 0.000000 3.727000 2.860000 9.206000 # C MOL
101 1 1 0.000000 3.727000 2.860000 10.626000 # C MOL
102 1 1 0.000000 2.860000 3.727000 11.336000 # C MOL
103 1 1 0.000000 4.340000 1.798000 12.756000 # C MOL
104 1 1 0.000000 1.798000 4.340000 9.206000 # C MOL
105 1 1 0.000000 1.798000 4.340000 10.626000 # C MOL
106 1 1 0.000000 0.613000 4.657000 11.336000 # C MOL
107 1 1 0.000000 2.860000 3.727000 12.756000 # C MOL
108 1 1 0.000000 -0.613000 4.657000 9.206000 # C MOL
109 1 1 0.000000 -0.613000 4.657000 10.626000 # C MOL
110 1 1 0.000000 -1.798000 4.340000 11.336000 # C MOL
111 1 1 0.000000 0.613000 4.657000 12.756000 # C MOL
112 1 1 0.000000 -2.860000 3.727000 9.206000 # C MOL
113 1 1 0.000000 -2.860000 3.727000 10.626000 # C MOL
114 1 1 0.000000 -3.727000 2.860000 11.336000 # C MOL
115 1 1 0.000000 -1.798000 4.340000 12.756000 # C MOL
116 1 1 0.000000 -4.340000 1.798000 9.206000 # C MOL
117 1 1 0.000000 -4.340000 1.798000 10.626000 # C MOL
118 1 1 0.000000 -4.657000 0.613000 11.336000 # C MOL
119 1 1 0.000000 -3.727000 2.860000 12.756000 # C MOL
120 1 1 0.000000 -4.657000 -0.613000 9.206000 # C MOL
121 1 1 0.000000 -4.657000 -0.613000 10.626000 # C MOL
122 1 1 0.000000 -4.340000 -1.798000 11.336000 # C MOL
123 1 1 0.000000 -4.657000 0.613000 12.756000 # C MOL
124 1 1 0.000000 -3.727000 -2.860000 9.206000 # C MOL
125 1 1 0.000000 -3.727000 -2.860000 10.626000 # C MOL
126 1 1 0.000000 -2.860000 -3.727000 11.336000 # C MOL
127 1 1 0.000000 -4.340000 -1.798000 12.756000 # C MOL
128 1 1 0.000000 -1.798000 -4.340000 9.206000 # C MOL
129 1 1 0.000000 -1.798000 -4.340000 10.626000 # C MOL
130 1 1 0.000000 -0.613000 -4.657000 11.336000 # C MOL
131 1 1 0.000000 -2.860000 -3.727000 12.756000 # C MOL
132 1 1 0.000000 0.613000 -4.657000 9.206000 # C MOL
133 1 1 0.000000 0.613000 -4.657000 10.626000 # C MOL
134 1 1 0.000000 1.798000 -4.340000 11.336000 # C MOL
135 1 1 0.000000 -0.613000 -4.657000 12.756000 # C MOL
136 1 1 0.000000 2.860000 -3.727000 9.206000 # C MOL
137 1 1 0.000000 2.860000 -3.727000 10.626000 # C MOL
138 1 1 0.000000 3.727000 -2.860000 11.336000 # C MOL
139 1 1 0.000000 1.798000 -4.340000 12.756000 # C MOL
140 1 1 0.000000 4.340000 -1.798000 9.206000 # C MOL
141 1 1 0.000000 4.340000 -1.798000 10.626000 # C MOL
142 1 1 0.000000 4.657000 -0.613000 11.336000 # C MOL
143 1 1 0.000000 3.727000 -2.860000 12.756000 # C MOL
144 1 1 0.000000 4.657000 -0.613000 12.756000 # C MOL
145 1 1 0.000000 4.657000 0.613000 13.466000 # C MOL
146 1 1 0.000000 4.657000 0.613000 14.886000 # C MOL
147 1 1 0.000000 4.340000 1.798000 15.596000 # C MOL
148 1 1 0.000000 3.727000 2.860000 13.466000 # C MOL
149 1 1 0.000000 3.727000 2.860000 14.886000 # C MOL
150 1 1 0.000000 2.860000 3.727000 15.596000 # C MOL
151 1 1 0.000000 4.340000 1.798000 17.016001 # C MOL
152 1 1 0.000000 1.798000 4.340000 13.466000 # C MOL
153 1 1 0.000000 1.798000 4.340000 14.886000 # C MOL
154 1 1 0.000000 0.613000 4.657000 15.596000 # C MOL
155 1 1 0.000000 2.860000 3.727000 17.016001 # C MOL
156 1 1 0.000000 -0.613000 4.657000 13.466000 # C MOL
157 1 1 0.000000 -0.613000 4.657000 14.886000 # C MOL
158 1 1 0.000000 -1.798000 4.340000 15.596000 # C MOL
159 1 1 0.000000 0.613000 4.657000 17.016001 # C MOL
160 1 1 0.000000 -2.860000 3.727000 13.466000 # C MOL
161 1 1 0.000000 -2.860000 3.727000 14.886000 # C MOL
162 1 1 0.000000 -3.727000 2.860000 15.596000 # C MOL
163 1 1 0.000000 -1.798000 4.340000 17.016001 # C MOL
164 1 1 0.000000 -4.340000 1.798000 13.466000 # C MOL
165 1 1 0.000000 -4.340000 1.798000 14.886000 # C MOL
166 1 1 0.000000 -4.657000 0.613000 15.596000 # C MOL
167 1 1 0.000000 -3.727000 2.860000 17.016001 # C MOL
168 1 1 0.000000 -4.657000 -0.613000 13.466000 # C MOL
169 1 1 0.000000 -4.657000 -0.613000 14.886000 # C MOL
170 1 1 0.000000 -4.340000 -1.798000 15.596000 # C MOL
171 1 1 0.000000 -4.657000 0.613000 17.016001 # C MOL
172 1 1 0.000000 -3.727000 -2.860000 13.466000 # C MOL
173 1 1 0.000000 -3.727000 -2.860000 14.886000 # C MOL
174 1 1 0.000000 -2.860000 -3.727000 15.596000 # C MOL
175 1 1 0.000000 -4.340000 -1.798000 17.016001 # C MOL
176 1 1 0.000000 -1.798000 -4.340000 13.466000 # C MOL
177 1 1 0.000000 -1.798000 -4.340000 14.886000 # C MOL
178 1 1 0.000000 -0.613000 -4.657000 15.596000 # C MOL
179 1 1 0.000000 -2.860000 -3.727000 17.016001 # C MOL
180 1 1 0.000000 0.613000 -4.657000 13.466000 # C MOL
181 1 1 0.000000 0.613000 -4.657000 14.886000 # C MOL
182 1 1 0.000000 1.798000 -4.340000 15.596000 # C MOL
183 1 1 0.000000 -0.613000 -4.657000 17.016001 # C MOL
184 1 1 0.000000 2.860000 -3.727000 13.466000 # C MOL
185 1 1 0.000000 2.860000 -3.727000 14.886000 # C MOL
186 1 1 0.000000 3.727000 -2.860000 15.596000 # C MOL
187 1 1 0.000000 1.798000 -4.340000 17.016001 # C MOL
188 1 1 0.000000 4.340000 -1.798000 13.466000 # C MOL
189 1 1 0.000000 4.340000 -1.798000 14.886000 # C MOL
190 1 1 0.000000 4.657000 -0.613000 15.596000 # C MOL
191 1 1 0.000000 3.727000 -2.860000 17.016001 # C MOL
192 1 1 0.000000 4.657000 -0.613000 17.016001 # C MOL
193 1 1 0.000000 4.657000 0.613000 17.726000 # C MOL
194 1 1 0.000000 4.657000 0.613000 19.146000 # C MOL
195 1 1 0.000000 4.340000 1.798000 19.856001 # C MOL
196 1 1 0.000000 3.727000 2.860000 17.726000 # C MOL
197 1 1 0.000000 3.727000 2.860000 19.146000 # C MOL
198 1 1 0.000000 2.860000 3.727000 19.856001 # C MOL
199 1 1 0.000000 4.340000 1.798000 21.275999 # C MOL
200 1 1 0.000000 1.798000 4.340000 17.726000 # C MOL
201 1 1 0.000000 1.798000 4.340000 19.146000 # C MOL
202 1 1 0.000000 0.613000 4.657000 19.856001 # C MOL
203 1 1 0.000000 2.860000 3.727000 21.275999 # C MOL
204 1 1 0.000000 -0.613000 4.657000 17.726000 # C MOL
205 1 1 0.000000 -0.613000 4.657000 19.146000 # C MOL
206 1 1 0.000000 -1.798000 4.340000 19.856001 # C MOL
207 1 1 0.000000 0.613000 4.657000 21.275999 # C MOL
208 1 1 0.000000 -2.860000 3.727000 17.726000 # C MOL
209 1 1 0.000000 -2.860000 3.727000 19.146000 # C MOL
210 1 1 0.000000 -3.727000 2.860000 19.856001 # C MOL
211 1 1 0.000000 -1.798000 4.340000 21.275999 # C MOL
212 1 1 0.000000 -4.340000 1.798000 17.726000 # C MOL
213 1 1 0.000000 -4.340000 1.798000 19.146000 # C MOL
214 1 1 0.000000 -4.657000 0.613000 19.856001 # C MOL
215 1 1 0.000000 -3.727000 2.860000 21.275999 # C MOL
216 1 1 0.000000 -4.657000 -0.613000 17.726000 # C MOL
217 1 1 0.000000 -4.657000 -0.613000 19.146000 # C MOL
218 1 1 0.000000 -4.340000 -1.798000 19.856001 # C MOL
219 1 1 0.000000 -4.657000 0.613000 21.275999 # C MOL
220 1 1 0.000000 -3.727000 -2.860000 17.726000 # C MOL
221 1 1 0.000000 -3.727000 -2.860000 19.146000 # C MOL
222 1 1 0.000000 -2.860000 -3.727000 19.856001 # C MOL
223 1 1 0.000000 -4.340000 -1.798000 21.275999 # C MOL
224 1 1 0.000000 -1.798000 -4.340000 17.726000 # C MOL
225 1 1 0.000000 -1.798000 -4.340000 19.146000 # C MOL
226 1 1 0.000000 -0.613000 -4.657000 19.856001 # C MOL
227 1 1 0.000000 -2.860000 -3.727000 21.275999 # C MOL
228 1 1 0.000000 0.613000 -4.657000 17.726000 # C MOL
229 1 1 0.000000 0.613000 -4.657000 19.146000 # C MOL
230 1 1 0.000000 1.798000 -4.340000 19.856001 # C MOL
231 1 1 0.000000 -0.613000 -4.657000 21.275999 # C MOL
232 1 1 0.000000 2.860000 -3.727000 17.726000 # C MOL
233 1 1 0.000000 2.860000 -3.727000 19.146000 # C MOL
234 1 1 0.000000 3.727000 -2.860000 19.856001 # C MOL
235 1 1 0.000000 1.798000 -4.340000 21.275999 # C MOL
236 1 1 0.000000 4.340000 -1.798000 17.726000 # C MOL
237 1 1 0.000000 4.340000 -1.798000 19.146000 # C MOL
238 1 1 0.000000 4.657000 -0.613000 19.856001 # C MOL
239 1 1 0.000000 3.727000 -2.860000 21.275999 # C MOL
240 1 1 0.000000 4.657000 -0.613000 21.275999 # C MOL
241 1 1 0.000000 4.657000 0.613000 21.986000 # C MOL
242 1 1 0.000000 4.657000 0.613000 23.406000 # C MOL
243 1 1 0.000000 4.340000 1.798000 24.115999 # C MOL
244 1 1 0.000000 3.727000 2.860000 21.986000 # C MOL
245 1 1 0.000000 3.727000 2.860000 23.406000 # C MOL
246 1 1 0.000000 2.860000 3.727000 24.115999 # C MOL
247 1 1 0.000000 4.340000 1.798000 25.535999 # C MOL
248 1 1 0.000000 1.798000 4.340000 21.986000 # C MOL
249 1 1 0.000000 1.798000 4.340000 23.406000 # C MOL
250 1 1 0.000000 0.613000 4.657000 24.115999 # C MOL
251 1 1 0.000000 2.860000 3.727000 25.535999 # C MOL
252 1 1 0.000000 -0.613000 4.657000 21.986000 # C MOL
253 1 1 0.000000 -0.613000 4.657000 23.406000 # C MOL
254 1 1 0.000000 -1.798000 4.340000 24.115999 # C MOL
255 1 1 0.000000 0.613000 4.657000 25.535999 # C MOL
256 1 1 0.000000 -2.860000 3.727000 21.986000 # C MOL
257 1 1 0.000000 -2.860000 3.727000 23.406000 # C MOL
258 1 1 0.000000 -3.727000 2.860000 24.115999 # C MOL
259 1 1 0.000000 -1.798000 4.340000 25.535999 # C MOL
260 1 1 0.000000 -4.340000 1.798000 21.986000 # C MOL
261 1 1 0.000000 -4.340000 1.798000 23.406000 # C MOL
262 1 1 0.000000 -4.657000 0.613000 24.115999 # C MOL
263 1 1 0.000000 -3.727000 2.860000 25.535999 # C MOL
264 1 1 0.000000 -4.657000 -0.613000 21.986000 # C MOL
265 1 1 0.000000 -4.657000 -0.613000 23.406000 # C MOL
266 1 1 0.000000 -4.340000 -1.798000 24.115999 # C MOL
267 1 1 0.000000 -4.657000 0.613000 25.535999 # C MOL
268 1 1 0.000000 -3.727000 -2.860000 21.986000 # C MOL
269 1 1 0.000000 -3.727000 -2.860000 23.406000 # C MOL
270 1 1 0.000000 -2.860000 -3.727000 24.115999 # C MOL
271 1 1 0.000000 -4.340000 -1.798000 25.535999 # C MOL
272 1 1 0.000000 -1.798000 -4.340000 21.986000 # C MOL
273 1 1 0.000000 -1.798000 -4.340000 23.406000 # C MOL
274 1 1 0.000000 -0.613000 -4.657000 24.115999 # C MOL
275 1 1 0.000000 -2.860000 -3.727000 25.535999 # C MOL
276 1 1 0.000000 0.613000 -4.657000 21.986000 # C MOL
277 1 1 0.000000 0.613000 -4.657000 23.406000 # C MOL
278 1 1 0.000000 1.798000 -4.340000 24.115999 # C MOL
279 1 1 0.000000 -0.613000 -4.657000 25.535999 # C MOL
280 1 1 0.000000 2.860000 -3.727000 21.986000 # C MOL
281 1 1 0.000000 2.860000 -3.727000 23.406000 # C MOL
282 1 1 0.000000 3.727000 -2.860000 24.115999 # C MOL
283 1 1 0.000000 1.798000 -4.340000 25.535999 # C MOL
284 1 1 0.000000 4.340000 -1.798000 21.986000 # C MOL
285 1 1 0.000000 4.340000 -1.798000 23.406000 # C MOL
286 1 1 0.000000 4.657000 -0.613000 24.115999 # C MOL
287 1 1 0.000000 3.727000 -2.860000 25.535999 # C MOL
288 1 1 0.000000 4.657000 -0.613000 25.535999 # C MOL
289 1 1 0.000000 4.657000 0.613000 26.246000 # C MOL
290 1 1 0.000000 4.657000 0.613000 27.666000 # C MOL
291 1 1 0.000000 4.340000 1.798000 28.375999 # C MOL
292 1 1 0.000000 3.727000 2.860000 26.246000 # C MOL
293 1 1 0.000000 3.727000 2.860000 27.666000 # C MOL
294 1 1 0.000000 2.860000 3.727000 28.375999 # C MOL
295 1 1 0.000000 4.340000 1.798000 29.796000 # C MOL
296 1 1 0.000000 1.798000 4.340000 26.246000 # C MOL
297 1 1 0.000000 1.798000 4.340000 27.666000 # C MOL
298 1 1 0.000000 0.613000 4.657000 28.375999 # C MOL
299 1 1 0.000000 2.860000 3.727000 29.796000 # C MOL
300 1 1 0.000000 -0.613000 4.657000 26.246000 # C MOL
301 1 1 0.000000 -0.613000 4.657000 27.666000 # C MOL
302 1 1 0.000000 -1.798000 4.340000 28.375999 # C MOL
303 1 1 0.000000 0.613000 4.657000 29.796000 # C MOL
304 1 1 0.000000 -2.860000 3.727000 26.246000 # C MOL
305 1 1 0.000000 -2.860000 3.727000 27.666000 # C MOL
306 1 1 0.000000 -3.727000 2.860000 28.375999 # C MOL
307 1 1 0.000000 -1.798000 4.340000 29.796000 # C MOL
308 1 1 0.000000 -4.340000 1.798000 26.246000 # C MOL
309 1 1 0.000000 -4.340000 1.798000 27.666000 # C MOL
310 1 1 0.000000 -4.657000 0.613000 28.375999 # C MOL
311 1 1 0.000000 -3.727000 2.860000 29.796000 # C MOL
312 1 1 0.000000 -4.657000 -0.613000 26.246000 # C MOL
313 1 1 0.000000 -4.657000 -0.613000 27.666000 # C MOL
314 1 1 0.000000 -4.340000 -1.798000 28.375999 # C MOL
315 1 1 0.000000 -4.657000 0.613000 29.796000 # C MOL
316 1 1 0.000000 -3.727000 -2.860000 26.246000 # C MOL
317 1 1 0.000000 -3.727000 -2.860000 27.666000 # C MOL
318 1 1 0.000000 -2.860000 -3.727000 28.375999 # C MOL
319 1 1 0.000000 -4.340000 -1.798000 29.796000 # C MOL
320 1 1 0.000000 -1.798000 -4.340000 26.246000 # C MOL
321 1 1 0.000000 -1.798000 -4.340000 27.666000 # C MOL
322 1 1 0.000000 -0.613000 -4.657000 28.375999 # C MOL
323 1 1 0.000000 -2.860000 -3.727000 29.796000 # C MOL
324 1 1 0.000000 0.613000 -4.657000 26.246000 # C MOL
325 1 1 0.000000 0.613000 -4.657000 27.666000 # C MOL
326 1 1 0.000000 1.798000 -4.340000 28.375999 # C MOL
327 1 1 0.000000 -0.613000 -4.657000 29.796000 # C MOL
328 1 1 0.000000 2.860000 -3.727000 26.246000 # C MOL
329 1 1 0.000000 2.860000 -3.727000 27.666000 # C MOL
330 1 1 0.000000 3.727000 -2.860000 28.375999 # C MOL
331 1 1 0.000000 1.798000 -4.340000 29.796000 # C MOL
332 1 1 0.000000 4.340000 -1.798000 26.246000 # C MOL
333 1 1 0.000000 4.340000 -1.798000 27.666000 # C MOL
334 1 1 0.000000 4.657000 -0.613000 28.375999 # C MOL
335 1 1 0.000000 3.727000 -2.860000 29.796000 # C MOL
336 1 1 0.000000 4.657000 -0.613000 29.796000 # C MOL
337 1 1 0.000000 4.657000 0.613000 30.506001 # C MOL
338 1 1 0.000000 4.657000 0.613000 31.926001 # C MOL
339 1 1 0.000000 4.340000 1.798000 32.636002 # C MOL
340 1 1 0.000000 3.727000 2.860000 30.506001 # C MOL
341 1 1 0.000000 3.727000 2.860000 31.926001 # C MOL
342 1 1 0.000000 2.860000 3.727000 32.636002 # C MOL
343 1 1 0.000000 4.340000 1.798000 34.056000 # C MOL
344 1 1 0.000000 1.798000 4.340000 30.506001 # C MOL
345 1 1 0.000000 1.798000 4.340000 31.926001 # C MOL
346 1 1 0.000000 0.613000 4.657000 32.636002 # C MOL
347 1 1 0.000000 2.860000 3.727000 34.056000 # C MOL
348 1 1 0.000000 -0.613000 4.657000 30.506001 # C MOL
349 1 1 0.000000 -0.613000 4.657000 31.926001 # C MOL
350 1 1 0.000000 -1.798000 4.340000 32.636002 # C MOL
351 1 1 0.000000 0.613000 4.657000 34.056000 # C MOL
352 1 1 0.000000 -2.860000 3.727000 30.506001 # C MOL
353 1 1 0.000000 -2.860000 3.727000 31.926001 # C MOL
354 1 1 0.000000 -3.727000 2.860000 32.636002 # C MOL
355 1 1 0.000000 -1.798000 4.340000 34.056000 # C MOL
356 1 1 0.000000 -4.340000 1.798000 30.506001 # C MOL
357 1 1 0.000000 -4.340000 1.798000 31.926001 # C MOL
358 1 1 0.000000 -4.657000 0.613000 32.636002 # C MOL
359 1 1 0.000000 -3.727000 2.860000 34.056000 # C MOL
360 1 1 0.000000 -4.657000 -0.613000 30.506001 # C MOL
361 1 1 0.000000 -4.657000 -0.613000 31.926001 # C MOL
362 1 1 0.000000 -4.340000 -1.798000 32.636002 # C MOL
363 1 1 0.000000 -4.657000 0.613000 34.056000 # C MOL
364 1 1 0.000000 -3.727000 -2.860000 30.506001 # C MOL
365 1 1 0.000000 -3.727000 -2.860000 31.926001 # C MOL
366 1 1 0.000000 -2.860000 -3.727000 32.636002 # C MOL
367 1 1 0.000000 -4.340000 -1.798000 34.056000 # C MOL
368 1 1 0.000000 -1.798000 -4.340000 30.506001 # C MOL
369 1 1 0.000000 -1.798000 -4.340000 31.926001 # C MOL
370 1 1 0.000000 -0.613000 -4.657000 32.636002 # C MOL
371 1 1 0.000000 -2.860000 -3.727000 34.056000 # C MOL
372 1 1 0.000000 0.613000 -4.657000 30.506001 # C MOL
373 1 1 0.000000 0.613000 -4.657000 31.926001 # C MOL
374 1 1 0.000000 1.798000 -4.340000 32.636002 # C MOL
375 1 1 0.000000 -0.613000 -4.657000 34.056000 # C MOL
376 1 1 0.000000 2.860000 -3.727000 30.506001 # C MOL
377 1 1 0.000000 2.860000 -3.727000 31.926001 # C MOL
378 1 1 0.000000 3.727000 -2.860000 32.636002 # C MOL
379 1 1 0.000000 1.798000 -4.340000 34.056000 # C MOL
380 1 1 0.000000 4.340000 -1.798000 30.506001 # C MOL
381 1 1 0.000000 4.340000 -1.798000 31.926001 # C MOL
382 1 1 0.000000 4.657000 -0.613000 32.636002 # C MOL
383 1 1 0.000000 3.727000 -2.860000 34.056000 # C MOL
384 1 1 0.000000 4.657000 -0.613000 34.056000 # C MOL
385 1 1 0.000000 4.657000 0.613000 34.765999 # C MOL
386 1 1 0.000000 4.657000 0.613000 36.186001 # C MOL
387 1 1 0.000000 4.340000 1.798000 36.896000 # C MOL
388 1 1 0.000000 3.727000 2.860000 34.765999 # C MOL
389 1 1 0.000000 3.727000 2.860000 36.186001 # C MOL
390 1 1 0.000000 2.860000 3.727000 36.896000 # C MOL
391 1 1 0.000000 4.340000 1.798000 38.316002 # C MOL
392 1 1 0.000000 1.798000 4.340000 34.765999 # C MOL
393 1 1 0.000000 1.798000 4.340000 36.186001 # C MOL
394 1 1 0.000000 0.613000 4.657000 36.896000 # C MOL
395 1 1 0.000000 2.860000 3.727000 38.316002 # C MOL
396 1 1 0.000000 -0.613000 4.657000 34.765999 # C MOL
397 1 1 0.000000 -0.613000 4.657000 36.186001 # C MOL
398 1 1 0.000000 -1.798000 4.340000 36.896000 # C MOL
399 1 1 0.000000 0.613000 4.657000 38.316002 # C MOL
400 1 1 0.000000 -2.860000 3.727000 34.765999 # C MOL
401 1 1 0.000000 -2.860000 3.727000 36.186001 # C MOL
402 1 1 0.000000 -3.727000 2.860000 36.896000 # C MOL
403 1 1 0.000000 -1.798000 4.340000 38.316002 # C MOL
404 1 1 0.000000 -4.340000 1.798000 34.765999 # C MOL
405 1 1 0.000000 -4.340000 1.798000 36.186001 # C MOL
406 1 1 0.000000 -4.657000 0.613000 36.896000 # C MOL
407 1 1 0.000000 -3.727000 2.860000 38.316002 # C MOL
408 1 1 0.000000 -4.657000 -0.613000 34.765999 # C MOL
409 1 1 0.000000 -4.657000 -0.613000 36.186001 # C MOL
410 1 1 0.000000 -4.340000 -1.798000 36.896000 # C MOL
411 1 1 0.000000 -4.657000 0.613000 38.316002 # C MOL
412 1 1 0.000000 -3.727000 -2.860000 34.765999 # C MOL
413 1 1 0.000000 -3.727000 -2.860000 36.186001 # C MOL
414 1 1 0.000000 -2.860000 -3.727000 36.896000 # C MOL
415 1 1 0.000000 -4.340000 -1.798000 38.316002 # C MOL
416 1 1 0.000000 -1.798000 -4.340000 34.765999 # C MOL
417 1 1 0.000000 -1.798000 -4.340000 36.186001 # C MOL
418 1 1 0.000000 -0.613000 -4.657000 36.896000 # C MOL
419 1 1 0.000000 -2.860000 -3.727000 38.316002 # C MOL
420 1 1 0.000000 0.613000 -4.657000 34.765999 # C MOL
421 1 1 0.000000 0.613000 -4.657000 36.186001 # C MOL
422 1 1 0.000000 1.798000 -4.340000 36.896000 # C MOL
423 1 1 0.000000 -0.613000 -4.657000 38.316002 # C MOL
424 1 1 0.000000 2.860000 -3.727000 34.765999 # C MOL
425 1 1 0.000000 2.860000 -3.727000 36.186001 # C MOL
426 1 1 0.000000 3.727000 -2.860000 36.896000 # C MOL
427 1 1 0.000000 1.798000 -4.340000 38.316002 # C MOL
428 1 1 0.000000 4.340000 -1.798000 34.765999 # C MOL
429 1 1 0.000000 4.340000 -1.798000 36.186001 # C MOL
430 1 1 0.000000 4.657000 -0.613000 36.896000 # C MOL
431 1 1 0.000000 3.727000 -2.860000 38.316002 # C MOL
432 1 1 0.000000 4.657000 -0.613000 38.316002 # C MOL
433 1 1 0.000000 4.657000 0.613000 39.026001 # C MOL
434 1 1 0.000000 4.657000 0.613000 40.445999 # C MOL
435 1 1 0.000000 4.340000 1.798000 41.155998 # C MOL
436 1 1 0.000000 3.727000 2.860000 39.026001 # C MOL
437 1 1 0.000000 3.727000 2.860000 40.445999 # C MOL
438 1 1 0.000000 2.860000 3.727000 41.155998 # C MOL
439 1 1 0.000000 4.340000 1.798000 42.576000 # C MOL
440 1 1 0.000000 1.798000 4.340000 39.026001 # C MOL
441 1 1 0.000000 1.798000 4.340000 40.445999 # C MOL
442 1 1 0.000000 0.613000 4.657000 41.155998 # C MOL
443 1 1 0.000000 2.860000 3.727000 42.576000 # C MOL
444 1 1 0.000000 -0.613000 4.657000 39.026001 # C MOL
445 1 1 0.000000 -0.613000 4.657000 40.445999 # C MOL
446 1 1 0.000000 -1.798000 4.340000 41.155998 # C MOL
447 1 1 0.000000 0.613000 4.657000 42.576000 # C MOL
448 1 1 0.000000 -2.860000 3.727000 39.026001 # C MOL
449 1 1 0.000000 -2.860000 3.727000 40.445999 # C MOL
450 1 1 0.000000 -3.727000 2.860000 41.155998 # C MOL
451 1 1 0.000000 -1.798000 4.340000 42.576000 # C MOL
452 1 1 0.000000 -4.340000 1.798000 39.026001 # C MOL
453 1 1 0.000000 -4.340000 1.798000 40.445999 # C MOL
454 1 1 0.000000 -4.657000 0.613000 41.155998 # C MOL
455 1 1 0.000000 -3.727000 2.860000 42.576000 # C MOL
456 1 1 0.000000 -4.657000 -0.613000 39.026001 # C MOL
457 1 1 0.000000 -4.657000 -0.613000 40.445999 # C MOL
458 1 1 0.000000 -4.340000 -1.798000 41.155998 # C MOL
459 1 1 0.000000 -4.657000 0.613000 42.576000 # C MOL
460 1 1 0.000000 -3.727000 -2.860000 39.026001 # C MOL
461 1 1 0.000000 -3.727000 -2.860000 40.445999 # C MOL
462 1 1 0.000000 -2.860000 -3.727000 41.155998 # C MOL
463 1 1 0.000000 -4.340000 -1.798000 42.576000 # C MOL
464 1 1 0.000000 -1.798000 -4.340000 39.026001 # C MOL
465 1 1 0.000000 -1.798000 -4.340000 40.445999 # C MOL
466 1 1 0.000000 -0.613000 -4.657000 41.155998 # C MOL
467 1 1 0.000000 -2.860000 -3.727000 42.576000 # C MOL
468 1 1 0.000000 0.613000 -4.657000 39.026001 # C MOL
469 1 1 0.000000 0.613000 -4.657000 40.445999 # C MOL
470 1 1 0.000000 1.798000 -4.340000 41.155998 # C MOL
471 1 1 0.000000 -0.613000 -4.657000 42.576000 # C MOL
472 1 1 0.000000 2.860000 -3.727000 39.026001 # C MOL
473 1 1 0.000000 2.860000 -3.727000 40.445999 # C MOL
474 1 1 0.000000 3.727000 -2.860000 41.155998 # C MOL
475 1 1 0.000000 1.798000 -4.340000 42.576000 # C MOL
476 1 1 0.000000 4.340000 -1.798000 39.026001 # C MOL
477 1 1 0.000000 4.340000 -1.798000 40.445999 # C MOL
478 1 1 0.000000 4.657000 -0.613000 41.155998 # C MOL
479 1 1 0.000000 3.727000 -2.860000 42.576000 # C MOL
480 1 1 0.000000 4.657000 -0.613000 42.576000 # C MOL
481 1 1 0.000000 4.657000 0.613000 43.285999 # C MOL
482 1 1 0.000000 4.657000 0.613000 44.706001 # C MOL
483 1 1 0.000000 4.340000 1.798000 45.416000 # C MOL
484 1 1 0.000000 3.727000 2.860000 43.285999 # C MOL
485 1 1 0.000000 3.727000 2.860000 44.706001 # C MOL
486 1 1 0.000000 2.860000 3.727000 45.416000 # C MOL
487 1 1 0.000000 4.340000 1.798000 46.835999 # C MOL
488 1 1 0.000000 1.798000 4.340000 43.285999 # C MOL
489 1 1 0.000000 1.798000 4.340000 44.706001 # C MOL
490 1 1 0.000000 0.613000 4.657000 45.416000 # C MOL
491 1 1 0.000000 2.860000 3.727000 46.835999 # C MOL
492 1 1 0.000000 -0.613000 4.657000 43.285999 # C MOL
493 1 1 0.000000 -0.613000 4.657000 44.706001 # C MOL
494 1 1 0.000000 -1.798000 4.340000 45.416000 # C MOL
495 1 1 0.000000 0.613000 4.657000 46.835999 # C MOL
496 1 1 0.000000 -2.860000 3.727000 43.285999 # C MOL
497 1 1 0.000000 -2.860000 3.727000 44.706001 # C MOL
498 1 1 0.000000 -3.727000 2.860000 45.416000 # C MOL
499 1 1 0.000000 -1.798000 4.340000 46.835999 # C MOL
500 1 1 0.000000 -4.340000 1.798000 43.285999 # C MOL
501 1 1 0.000000 -4.340000 1.798000 44.706001 # C MOL
502 1 1 0.000000 -4.657000 0.613000 45.416000 # C MOL
503 1 1 0.000000 -3.727000 2.860000 46.835999 # C MOL
504 1 1 0.000000 -4.657000 -0.613000 43.285999 # C MOL
505 1 1 0.000000 -4.657000 -0.613000 44.706001 # C MOL
506 1 1 0.000000 -4.340000 -1.798000 45.416000 # C MOL
507 1 1 0.000000 -4.657000 0.613000 46.835999 # C MOL
508 1 1 0.000000 -3.727000 -2.860000 43.285999 # C MOL
509 1 1 0.000000 -3.727000 -2.860000 44.706001 # C MOL
510 1 1 0.000000 -2.860000 -3.727000 45.416000 # C MOL
511 1 1 0.000000 -4.340000 -1.798000 46.835999 # C MOL
512 1 1 0.000000 -1.798000 -4.340000 43.285999 # C MOL
513 1 1 0.000000 -1.798000 -4.340000 44.706001 # C MOL
514 1 1 0.000000 -0.613000 -4.657000 45.416000 # C MOL
515 1 1 0.000000 -2.860000 -3.727000 46.835999 # C MOL
516 1 1 0.000000 0.613000 -4.657000 43.285999 # C MOL
517 1 1 0.000000 0.613000 -4.657000 44.706001 # C MOL
518 1 1 0.000000 1.798000 -4.340000 45.416000 # C MOL
519 1 1 0.000000 -0.613000 -4.657000 46.835999 # C MOL
520 1 1 0.000000 2.860000 -3.727000 43.285999 # C MOL
521 1 1 0.000000 2.860000 -3.727000 44.706001 # C MOL
522 1 1 0.000000 3.727000 -2.860000 45.416000 # C MOL
523 1 1 0.000000 1.798000 -4.340000 46.835999 # C MOL
524 1 1 0.000000 4.340000 -1.798000 43.285999 # C MOL
525 1 1 0.000000 4.340000 -1.798000 44.706001 # C MOL
526 1 1 0.000000 4.657000 -0.613000 45.416000 # C MOL
527 1 1 0.000000 3.727000 -2.860000 46.835999 # C MOL
528 1 1 0.000000 4.657000 -0.613000 46.835999 # C MOL
529 1 1 0.000000 4.657000 0.613000 47.546001 # C MOL
530 1 1 0.000000 4.657000 0.613000 48.966000 # C MOL
531 1 1 0.000000 4.340000 1.798000 49.675999 # C MOL
532 1 1 0.000000 3.727000 2.860000 47.546001 # C MOL
533 1 1 0.000000 3.727000 2.860000 48.966000 # C MOL
534 1 1 0.000000 2.860000 3.727000 49.675999 # C MOL
535 1 1 0.000000 4.340000 1.798000 51.096001 # C MOL
536 1 1 0.000000 1.798000 4.340000 47.546001 # C MOL
537 1 1 0.000000 1.798000 4.340000 48.966000 # C MOL
538 1 1 0.000000 0.613000 4.657000 49.675999 # C MOL
539 1 1 0.000000 2.860000 3.727000 51.096001 # C MOL
540 1 1 0.000000 -0.613000 4.657000 47.546001 # C MOL
541 1 1 0.000000 -0.613000 4.657000 48.966000 # C MOL
542 1 1 0.000000 -1.798000 4.340000 49.675999 # C MOL
543 1 1 0.000000 0.613000 4.657000 51.096001 # C MOL
544 1 1 0.000000 -2.860000 3.727000 47.546001 # C MOL
545 1 1 0.000000 -2.860000 3.727000 48.966000 # C MOL
546 1 1 0.000000 -3.727000 2.860000 49.675999 # C MOL
547 1 1 0.000000 -1.798000 4.340000 51.096001 # C MOL
548 1 1 0.000000 -4.340000 1.798000 47.546001 # C MOL
549 1 1 0.000000 -4.340000 1.798000 48.966000 # C MOL
550 1 1 0.000000 -4.657000 0.613000 49.675999 # C MOL
551 1 1 0.000000 -3.727000 2.860000 51.096001 # C MOL